
#(C) 2020 by FIZ Karlsruhe - Leibniz Institute for Information Infrastructure.  All rights reserved.
data_153886-ICSD
_database_code_ICSD 153886
_audit_creation_date 2007-04-01
_chemical_name_common 'Silicon dioxide - cristobalite'
_chemical_formula_structural 'Si O2'
_chemical_formula_sum 'O2 Si1'
_chemical_name_structure_type Cristobalite(alpha)#SiO2
_chemical_name_mineral Cristobalite
_exptl_crystal_density_diffrn 2.31
_citation_title

;
Structural refinement of Eu doped Ca Mg Si2 O6 using X-ray powder diffraction
data
;
loop_
_citation_id
_citation_journal_full
_citation_year
_citation_journal_volume
_citation_page_first
_citation_page_last
_citation_journal_id_ASTM
primary 'Journal of Luminescence' 2005 115 1 6 JLUMA8
loop_
_citation_author_citation_id
_citation_author_name
primary 'Kim Yong-Il'
primary 'Nahm Seung-Hoon'
primary 'Im Won Bin'
primary 'Jeon Duk Young'
primary 'Gregory, D.H.'
_cell_length_a 4.9836(15)
_cell_length_b 4.9836(15)
_cell_length_c 6.9549(39)
_cell_angle_alpha 90.
_cell_angle_beta 90.
_cell_angle_gamma 90.
_cell_volume 172.73
_cell_formula_units_Z 4
_space_group_name_H-M_alt 'P 41 21 2'
_space_group_IT_number 92
loop_
_space_group_symop_id
_space_group_symop_operation_xyz
1 'x+1/2, -y+1/2, -z+3/4'
2 '-x+1/2, y+1/2, -z+1/4'
3 '-y, -x, -z+1/2'
4 'y, x, -z'
5 'y+1/2, -x+1/2, z+3/4'
6 '-y+1/2, x+1/2, z+1/4'
7 '-x, -y, z+1/2'
8 'x, y, z'
loop_
_atom_type_symbol
_atom_type_oxidation_number
Si4+ 4
O2- -2
loop_
_atom_site_label
_atom_site_type_symbol
_atom_site_symmetry_multiplicity
_atom_site_Wyckoff_symbol
_atom_site_fract_x
_atom_site_fract_y
_atom_site_fract_z
_atom_site_U_iso_or_equiv
_atom_site_occupancy
Si1 Si4+ 4 a 0.3057(24) 0.3057(24) 0 0.0032(41) 1.
O1 O2- 8 b 0.2513(42) 0.0952(44) 0.1561(27) 0.0032(41) 1.
#End of TTdata_153886-ICSD